# LAMMPS, full style
972 atoms
2 atom types
0	22.14	xlo xhi
0	19.173802439787472	ylo yhi
0	21.72	zlo zhi
-11.069999999999995	0	0 xy xz yz

Atoms

1	1	1	0	-9.839999999999	18.46366160868523	7.24
2	1	1	0	-7.379999999999	14.202816622065797	0.38425506316747776
3	1	1	0	-7.379999999999	18.46366160868523	7.087374978457281
4	1	1	0	-4.919999999999	9.941971635446356	1.2066666666666668
5	1	1	0	-4.919999999998999	14.202816622065795	0.2795019345433921
6	1	1	0	-4.919999999998999	18.46366160868523	6.855744936832521
7	1	1	0	-2.459999999999	5.6811266488269165	2.0290782701658547
8	1	1	0	-2.4599999999990008	9.941971635446356	1.5909217298341454
9	1	1	0	-2.4599999999989977	14.202816622065795	7.24
10	1	1	0	-2.4599999999989985	18.46366160868523	6.5041992916436735
11	1	1	0	1.0002483203848033e-12	1.4202816622074799	2.4133333333333336
12	1	1	0	1.0009747146381926e-12	5.6811266488269165	2.4133333333333336
13	1	1	0	1.0011382258180973e-12	9.941971635446356	2.413333333333334
14	1	1	0	1.0002431393440216e-12	14.202816622065797	6.0333333333333306
15	1	1	0	1.002487763583586e-12	18.46366160868523	6.033333333333333
16	1	1	0	2.460000000001001	1.4202816622074803	2.4133333333333336
17	1	1	0	2.460000000001001	5.681126648826918	2.797588396500812
18	1	1	0	2.460000000001	9.941971635446356	3.2357449368325213
19	1	1	0	2.4600000000010005	14.202816622065795	4.826666666666666
20	1	1	0	2.4600000000009996	18.46366160868523	5.562467375022993
21	1	1	0	4.920000000001001	1.4202816622074794	2.233373569200277
22	1	1	0	4.920000000001001	5.681126648826918	2.8841992916436734
23	1	1	0	4.920000000001001	9.941971635446356	3.62
24	1	1	0	4.920000000001	14.202816622065797	4.547164732123274
25	1	1	0	4.920000000001003	18.46366160868523	5.210921729834145
26	1	1	0	7.380000000001001	1.4202816622074799	1.9424673750229924
27	1	1	0	7.380000000001	5.6811266488269165	2.797588396500811
28	1	1	0	7.380000000001003	9.941971635446357	3.8995019345433923
29	1	1	0	7.380000000001001	14.202816622065797	4.442411603499189
30	1	1	0	7.3800000000010035	18.46366160868523	4.9792916882093845
31	1	1	0	9.840000000001	1.4202816622074796	1.486168601210059
32	1	1	0	9.840000000001002	5.681126648826918	2.4133333333333327
33	1	1	0	9.840000000001	9.941971635446356	4.442411603499188
34	1	1	0	9.840000000001002	14.202816622065797	4.646706902533611
35	1	1	0	9.840000000001002	18.463661608685232	4.826666666666666
36	1	1	0	12.300000000001003	1.4202816622074808	0.9271647321232742
37	1	1	0	12.300000000001003	5.681126648826918	7.24
38	1	1	0	12.300000000001003	9.941971635446356	5.210921729834146
39	1	1	0	12.300000000001003	14.202816622065797	5.006626430799722
40	1	1	0	14.760000000001002	1.42028166220748	0.4708659583103408
41	1	1	0	14.760000000001002	5.6811266488269165	6.855744936832522
42	1	1	0	14.760000000001003	9.941971635446356	5.753831398789941
43	1	1	0	17.220000000001	1.4202816622074796	0.1799597641330562
44	1	1	0	17.220000000000997	5.6811266488269165	6.76913404168966
45	1	1	0	19.680000000001	1.4202816622074799	0.0
46	1	1	0	-8.609999999998996	16.333239115375513	0.15262502154271793
47	1	1	0	-6.1499999999989985	12.072394128756073	0.7358007083563256
48	1	1	0	-6.149999999998999	16.333239115375513	7.24
49	1	1	0	-3.689999999999001	7.811549142136638	1.6775326249770077
50	1	1	0	-3.6899999999989994	12.072394128756073	0.8224116034991878
51	1	1	0	-3.689999999998998	16.333239115375513	6.9604980654566075
52	1	1	0	-1.2299999999989994	3.5507041555171988	2.2607083117906153
53	1	1	0	-1.2299999999989997	7.811549142136638	2.1338313987899413
54	1	1	0	-1.2299999999989988	12.072394128756077	1.2066666666666668
55	1	1	0	-1.2299999999989972	16.333239115375513	6.417588396500811
56	1	1	0	1.2300000000010005	3.5507041555171988	2.5659583548760514
57	1	1	0	1.2300000000010007	7.811549142136638	2.692835267876726
58	1	1	0	1.2300000000010014	12.072394128756073	3.62
59	1	1	0	1.230000000001	16.333239115375513	5.6490782701658535
60	1	1	0	3.690000000001	3.5507041555171988	2.5932930974663893
61	1	1	0	3.690000000001001	7.811549142136638	3.1491340416896594
62	1	1	0	3.6900000000010023	12.072394128756073	4.004255063167479
63	1	1	0	3.6900000000010027	16.333239115375513	5.106168601210058
64	1	1	0	6.150000000001002	3.5507041555171988	2.4133333333333336
65	1	1	0	6.1500000000010004	7.811549142136637	3.3404980654566074
66	1	1	0	6.150000000001004	12.072394128756077	4.090865958310341
67	1	1	0	6.150000000001001	16.333239115375513	4.826666666666667
68	1	1	0	8.610000000001	3.5507041555171988	2.0290782701658547
69	1	1	0	8.610000000001	7.811549142136638	3.62
70	1	1	0	8.610000000001001	12.072394128756073	4.355800708356326
71	1	1	0	8.610000000001001	16.333239115375513	4.674041645123948
72	1	1	0	11.070000000001002	3.5507041555171988	1.2066666666666668
73	1	1	0	11.070000000001	7.811549142136638	4.826666666666667
74	1	1	0	11.070000000001004	12.072394128756073	4.826666666666667
75	1	1	0	11.070000000001002	16.333239115375513	4.826666666666666
76	1	1	0	13.530000000001003	3.5507041555171988	0.3842550631674785
77	1	1	0	13.530000000001001	7.811549142136637	6.033333333333333
78	1	1	0	13.530000000001001	12.072394128756073	5.297532624977007
79	1	1	0	15.990000000001004	3.5507041555171988	7.24
80	1	1	0	15.990000000001002	7.811549142136638	6.312835267876726
81	1	1	0	18.450000000001	3.5507041555171988	7.0600402358669445
82	1	1	0	-8.609999999999	17.75352077758199	7.24
83	1	1	0	-6.149999999999001	13.492675790962553	0.47086595831034034
84	1	1	0	-6.149999999998999	17.75352077758199	7.0600402358669445
85	1	1	0	-3.689999999999	9.231830804343115	1.486168601210059
86	1	1	0	-3.689999999999	13.492675790962556	0.38425506316747776
87	1	1	0	-3.689999999999	17.75352077758199	6.76913404168966
88	1	1	0	-1.2299999999990003	4.970985817723678	2.233373569200277
89	1	1	0	-1.229999999998999	9.231830804343115	2.0290782701658547
90	1	1	0	-1.2299999999989988	13.492675790962553	7.24
91	1	1	0	-1.229999999998999	17.75352077758199	6.312835267876726
92	1	1	0	1.2300000000010003	0.7101408311042402	2.4133333333333336
93	1	1	0	1.230000000001	4.970985817723678	2.5932930974663893
94	1	1	0	1.230000000001	9.231830804343115	2.7975883965008124
95	1	1	0	1.230000000001002	13.492675790962553	4.826666666666665
96	1	1	0	1.2300000000010018	17.75352077758199	5.7538313987899405
97	1	1	0	3.6900000000010014	0.7101408311042405	2.2607083117906153
98	1	1	0	3.690000000001002	4.970985817723678	2.797588396500812
99	1	1	0	3.690000000001001	9.231830804343115	3.3404980654566074
100	1	1	0	3.690000000001002	13.492675790962556	4.442411603499188
101	1	1	0	3.690000000001001	17.75352077758199	5.297532624977007
102	1	1	0	6.1500000000010004	0.7101408311042399	2.0290782701658547
103	1	1	0	6.1500000000010004	4.970985817723678	2.692835267876726
104	1	1	0	6.150000000001001	9.231830804343117	3.62
105	1	1	0	6.1500000000010004	13.492675790962553	4.355800708356325
106	1	1	0	6.150000000000999	17.75352077758199	5.006626430799722
107	1	1	0	8.610000000001	0.7101408311042398	1.6775326249770077
108	1	1	0	8.610000000001	4.970985817723678	2.4133333333333336
109	1	1	0	8.610000000001	9.231830804343115	4.004255063167479
110	1	1	0	8.610000000001	13.492675790962553	4.442411603499188
111	1	1	0	8.610000000001	17.75352077758199	4.826666666666666
112	1	1	0	11.070000000001	0.7101408311042399	1.2066666666666668
113	1	1	0	11.070000000001	4.970985817723678	1.2066666666666668
114	1	1	0	11.070000000001002	9.231830804343115	4.826666666666667
115	1	1	0	11.070000000001	13.492675790962553	4.826666666666666
116	1	1	0	11.070000000001004	17.75352077758199	4.826666666666667
117	1	1	0	13.530000000001001	0.7101408311042394	0.735800708356326
118	1	1	0	13.530000000001	4.970985817723678	4.019007349143067e-16
119	1	1	0	13.530000000001003	9.231830804343115	5.649078270165856
120	1	1	0	13.530000000001001	13.492675790962553	5.210921729834145
121	1	1	0	15.990000000001002	0.7101408311042396	0.3842550631674785
122	1	1	0	15.990000000001	4.970985817723678	6.9604980654566075
123	1	1	0	15.990000000001004	9.231830804343115	6.033333333333334
124	1	1	0	18.450000000001	0.7101408311042392	0.15262502154271834
125	1	1	0	18.450000000000998	4.970985817723678	6.855744936832522
126	1	1	0	20.910000000001006	0.7101408311042394	0.0
127	1	1	0	-7.3799999999990025	15.623098284272276	0.1799597641330554
128	1	1	0	-4.919999999999001	11.362253297652835	0.9271647321232742
129	1	1	0	-4.919999999999002	15.623098284272276	7.24
130	1	1	0	-2.459999999999	7.101408311033397	1.9424673750229924
131	1	1	0	-2.459999999998998	11.362253297652835	1.2066666666666668
132	1	1	0	-2.459999999999	15.623098284272276	6.855744936832521
133	1	1	0	1.0006444952472664e-12	2.8405633244139596	2.4133333333333336
134	1	1	0	1.0008932160443108e-12	7.101408311033398	2.4133333333333336
135	1	1	0	1.0000652980632252e-12	11.362253297652835	2.4133333333333344
136	1	1	0	1.0003992284774096e-12	15.623098284272274	6.033333333333333
137	1	1	0	2.4600000000010005	2.8405633244139588	2.5659583548760514
138	1	1	0	2.460000000001001	7.101408311033398	2.884199291643674
139	1	1	0	2.460000000000999	11.362253297652835	3.62
140	1	1	0	2.460000000001002	15.623098284272276	5.210921729834145
141	1	1	0	4.920000000001	2.840563324413959	2.413333333333333
142	1	1	0	4.920000000001001	7.101408311033398	3.1491340416896594
143	1	1	0	4.920000000001002	11.362253297652835	3.899501934543392
144	1	1	0	4.920000000001	15.623098284272274	4.826666666666666
145	1	1	0	7.380000000001001	2.8405633244139588	2.133831398789941
146	1	1	0	7.380000000001001	7.101408311033397	3.2357449368325213
147	1	1	0	7.380000000000999	11.362253297652835	4.09086595831034
148	1	1	0	7.380000000001002	15.623098284272276	4.646706902533611
149	1	1	0	9.840000000001002	2.8405633244139588	1.5909217298341454
150	1	1	0	9.840000000001	7.101408311033398	3.62
151	1	1	0	9.840000000001002	11.362253297652835	4.547164732123274
152	1	1	0	9.840000000001	15.623098284272274	4.674041645123948
153	1	1	0	12.300000000001003	2.840563324413959	0.8224116034991885
154	1	1	0	12.300000000000999	7.101408311033398	6.033333333333333
155	1	1	0	12.300000000001003	11.362253297652835	5.10616860121006
156	1	1	0	12.300000000001	15.623098284272274	4.9792916882093845
157	1	1	0	14.760000000001002	2.8405633244139596	0.2795019345433925
158	1	1	0	14.760000000001002	7.101408311033397	6.417588396500811
159	1	1	0	14.760000000001	11.362253297652835	5.562467375022993
160	1	1	0	17.220000000001	2.840563324413959	0.0
161	1	1	0	17.220000000000997	7.101408311033397	6.504199291643674
162	1	1	0	19.680000000001	2.840563324413959	7.087374978457281
163	1	1	0	-9.839999999999	18.46366160868523	3.62
164	1	1	0	-7.379999999999	14.202816622065797	4.004255063167478
165	1	1	0	-7.379999999999	18.46366160868523	3.467374978457282
166	1	1	0	-4.919999999999	9.941971635446356	4.826666666666667
167	1	1	0	-4.919999999998999	14.202816622065795	3.899501934543392
168	1	1	0	-4.919999999998999	18.46366160868523	3.2357449368325213
169	1	1	0	-2.459999999999	5.6811266488269165	5.649078270165855
170	1	1	0	-2.4599999999990008	9.941971635446356	5.210921729834145
171	1	1	0	-2.4599999999989977	14.202816622065795	3.619999999999999
172	1	1	0	-2.4599999999989985	18.46366160868523	2.8841992916436734
173	1	1	0	1.0002483203848033e-12	1.4202816622074799	6.033333333333333
174	1	1	0	1.0009747146381926e-12	5.6811266488269165	6.033333333333333
175	1	1	0	1.0011382258180973e-12	9.941971635446356	6.033333333333334
176	1	1	0	1.0002431393440216e-12	14.202816622065797	2.4133333333333318
177	1	1	0	1.002487763583586e-12	18.46366160868523	2.4133333333333327
178	1	1	0	2.460000000001001	1.4202816622074803	6.033333333333333
179	1	1	0	2.460000000001001	5.681126648826918	6.417588396500811
180	1	1	0	2.460000000001	9.941971635446356	6.855744936832521
181	1	1	0	2.4600000000010005	14.202816622065795	1.2066666666666663
182	1	1	0	2.4600000000009996	18.46366160868523	1.9424673750229915
183	1	1	0	4.920000000001001	1.4202816622074794	5.8533735692002775
184	1	1	0	4.920000000001001	5.681126648826918	6.5041992916436735
185	1	1	0	4.920000000001001	9.941971635446356	7.24
186	1	1	0	4.920000000001	14.202816622065797	0.9271647321232742
187	1	1	0	4.920000000001003	18.46366160868523	1.5909217298341447
188	1	1	0	7.380000000001001	1.4202816622074799	5.562467375022993
189	1	1	0	7.380000000001	5.6811266488269165	6.417588396500811
190	1	1	0	7.380000000001003	9.941971635446357	0.2795019345433921
191	1	1	0	7.380000000001001	14.202816622065797	0.8224116034991878
192	1	1	0	7.3800000000010035	18.46366160868523	1.3592916882093844
193	1	1	0	9.840000000001	1.4202816622074796	5.10616860121006
194	1	1	0	9.840000000001002	5.681126648826918	6.033333333333333
195	1	1	0	9.840000000001	9.941971635446356	0.8224116034991878
196	1	1	0	9.840000000001002	14.202816622065797	1.0267069025336106
197	1	1	0	9.840000000001002	18.463661608685232	1.2066666666666663
198	1	1	0	12.300000000001003	1.4202816622074808	4.547164732123274
199	1	1	0	12.300000000001003	5.681126648826918	3.62
200	1	1	0	12.300000000001003	9.941971635446356	1.5909217298341454
201	1	1	0	12.300000000001003	14.202816622065797	1.3866264307997227
202	1	1	0	14.760000000001002	1.42028166220748	4.090865958310341
203	1	1	0	14.760000000001002	5.6811266488269165	3.2357449368325213
204	1	1	0	14.760000000001003	9.941971635446356	2.1338313987899413
205	1	1	0	17.220000000001	1.4202816622074796	3.799959764133056
206	1	1	0	17.220000000000997	5.6811266488269165	3.14913404168966
207	1	1	0	19.680000000001	1.4202816622074799	3.62
208	1	1	0	-8.609999999998996	16.333239115375513	3.7726250215427175
209	1	1	0	-6.1499999999989985	12.072394128756073	4.355800708356325
210	1	1	0	-6.149999999998999	16.333239115375513	3.6199999999999997
211	1	1	0	-3.689999999999001	7.811549142136638	5.297532624977007
212	1	1	0	-3.6899999999989994	12.072394128756073	4.442411603499188
213	1	1	0	-3.689999999998998	16.333239115375513	3.3404980654566074
214	1	1	0	-1.2299999999989994	3.5507041555171988	5.880708311790614
215	1	1	0	-1.2299999999989997	7.811549142136638	5.753831398789941
216	1	1	0	-1.2299999999989988	12.072394128756077	4.826666666666667
217	1	1	0	-1.2299999999989972	16.333239115375513	2.7975883965008106
218	1	1	0	1.2300000000010005	3.5507041555171988	6.1859583548760515
219	1	1	0	1.2300000000010007	7.811549142136638	6.312835267876726
220	1	1	0	1.2300000000010014	12.072394128756073	7.24
221	1	1	0	1.230000000001	16.333239115375513	2.0290782701658543
222	1	1	0	3.690000000001	3.5507041555171988	6.213293097466388
223	1	1	0	3.690000000001001	7.811549142136638	6.76913404168966
224	1	1	0	3.6900000000010023	12.072394128756073	0.3842550631674785
225	1	1	0	3.6900000000010027	16.333239115375513	1.4861686012100586
226	1	1	0	6.150000000001002	3.5507041555171988	6.033333333333333
227	1	1	0	6.1500000000010004	7.811549142136637	6.9604980654566075
228	1	1	0	6.150000000001004	12.072394128756077	0.47086595831034034
229	1	1	0	6.150000000001001	16.333239115375513	1.2066666666666663
230	1	1	0	8.610000000001	3.5507041555171988	5.649078270165855
231	1	1	0	8.610000000001	7.811549142136638	7.24
232	1	1	0	8.610000000001001	12.072394128756073	0.7358007083563256
233	1	1	0	8.610000000001001	16.333239115375513	1.054041645123948
234	1	1	0	11.070000000001002	3.5507041555171988	4.826666666666667
235	1	1	0	11.070000000001	7.811549142136638	1.2066666666666668
236	1	1	0	11.070000000001004	12.072394128756073	1.2066666666666668
237	1	1	0	11.070000000001002	16.333239115375513	1.2066666666666663
238	1	1	0	13.530000000001003	3.5507041555171988	4.004255063167479
239	1	1	0	13.530000000001001	7.811549142136637	2.4133333333333336
240	1	1	0	13.530000000001001	12.072394128756073	1.6775326249770077
241	1	1	0	15.990000000001004	3.5507041555171988	3.62
242	1	1	0	15.990000000001002	7.811549142136638	2.692835267876726
243	1	1	0	18.450000000001	3.5507041555171988	3.440040235866944
244	1	1	0	-8.609999999999	17.75352077758199	3.6199999999999997
245	1	1	0	-6.149999999999001	13.492675790962553	4.09086595831034
246	1	1	0	-6.149999999998999	17.75352077758199	3.440040235866944
247	1	1	0	-3.689999999999	9.231830804343115	5.10616860121006
248	1	1	0	-3.689999999999	13.492675790962556	4.004255063167478
249	1	1	0	-3.689999999999	17.75352077758199	3.1491340416896585
250	1	1	0	-1.2299999999990003	4.970985817723678	5.8533735692002775
251	1	1	0	-1.229999999998999	9.231830804343115	5.649078270165856
252	1	1	0	-1.2299999999989988	13.492675790962553	3.62
253	1	1	0	-1.229999999998999	17.75352077758199	2.692835267876725
254	1	1	0	1.2300000000010003	0.7101408311042402	6.033333333333333
255	1	1	0	1.230000000001	4.970985817723678	6.213293097466388
256	1	1	0	1.230000000001	9.231830804343115	6.417588396500811
257	1	1	0	1.230000000001002	13.492675790962553	1.2066666666666652
258	1	1	0	1.2300000000010018	17.75352077758199	2.13383139878994
259	1	1	0	3.6900000000010014	0.7101408311042405	5.880708311790614
260	1	1	0	3.690000000001002	4.970985817723678	6.417588396500811
261	1	1	0	3.690000000001001	9.231830804343115	6.9604980654566075
262	1	1	0	3.690000000001002	13.492675790962556	0.8224116034991878
263	1	1	0	3.690000000001001	17.75352077758199	1.6775326249770068
264	1	1	0	6.1500000000010004	0.7101408311042399	5.6490782701658535
265	1	1	0	6.1500000000010004	4.970985817723678	6.312835267876726
266	1	1	0	6.150000000001001	9.231830804343117	7.24
267	1	1	0	6.1500000000010004	13.492675790962553	0.7358007083563256
268	1	1	0	6.150000000000999	17.75352077758199	1.3866264307997218
269	1	1	0	8.610000000001	0.7101408311042398	5.297532624977007
270	1	1	0	8.610000000001	4.970985817723678	6.033333333333333
271	1	1	0	8.610000000001	9.231830804343115	0.38425506316747776
272	1	1	0	8.610000000001	13.492675790962553	0.8224116034991878
273	1	1	0	8.610000000001	17.75352077758199	1.2066666666666663
274	1	1	0	11.070000000001	0.7101408311042399	4.826666666666666
275	1	1	0	11.070000000001	4.970985817723678	4.826666666666667
276	1	1	0	11.070000000001002	9.231830804343115	1.2066666666666668
277	1	1	0	11.070000000001	13.492675790962553	1.2066666666666663
278	1	1	0	11.070000000001004	17.75352077758199	1.2066666666666668
279	1	1	0	13.530000000001001	0.7101408311042394	4.355800708356326
280	1	1	0	13.530000000001	4.970985817723678	3.620000000000001
281	1	1	0	13.530000000001003	9.231830804343115	2.0290782701658547
282	1	1	0	13.530000000001001	13.492675790962553	1.590921729834145
283	1	1	0	15.990000000001002	0.7101408311042396	4.004255063167479
284	1	1	0	15.990000000001	4.970985817723678	3.340498065456608
285	1	1	0	15.990000000001004	9.231830804343115	2.4133333333333336
286	1	1	0	18.450000000001	0.7101408311042392	3.772625021542718
287	1	1	0	18.450000000000998	4.970985817723678	3.2357449368325213
288	1	1	0	20.910000000001006	0.7101408311042394	3.62
289	1	1	0	-7.3799999999990025	15.623098284272276	3.7999597641330554
290	1	1	0	-4.919999999999001	11.362253297652835	4.547164732123274
291	1	1	0	-4.919999999999002	15.623098284272276	3.6199999999999997
292	1	1	0	-2.459999999999	7.101408311033397	5.562467375022993
293	1	1	0	-2.459999999998998	11.362253297652835	4.826666666666667
294	1	1	0	-2.459999999999	15.623098284272276	3.235744936832521
295	1	1	0	1.0006444952472664e-12	2.8405633244139596	6.033333333333333
296	1	1	0	1.0008932160443108e-12	7.101408311033398	6.033333333333333
297	1	1	0	1.0000652980632252e-12	11.362253297652835	6.033333333333334
298	1	1	0	1.0003992284774096e-12	15.623098284272274	2.4133333333333327
299	1	1	0	2.4600000000010005	2.8405633244139588	6.1859583548760515
300	1	1	0	2.460000000001001	7.101408311033398	6.504199291643674
301	1	1	0	2.460000000000999	11.362253297652835	7.24
302	1	1	0	2.460000000001002	15.623098284272276	1.5909217298341447
303	1	1	0	4.920000000001	2.840563324413959	6.033333333333333
304	1	1	0	4.920000000001001	7.101408311033398	6.76913404168966
305	1	1	0	4.920000000001002	11.362253297652835	0.2795019345433921
306	1	1	0	4.920000000001	15.623098284272274	1.2066666666666663
307	1	1	0	7.380000000001001	2.8405633244139588	5.7538313987899405
308	1	1	0	7.380000000001001	7.101408311033397	6.855744936832521
309	1	1	0	7.380000000000999	11.362253297652835	0.47086595831034034
310	1	1	0	7.380000000001002	15.623098284272276	1.0267069025336106
311	1	1	0	9.840000000001002	2.8405633244139588	5.210921729834145
312	1	1	0	9.840000000001	7.101408311033398	7.24
313	1	1	0	9.840000000001002	11.362253297652835	0.927164732123274
314	1	1	0	9.840000000001	15.623098284272274	1.054041645123948
315	1	1	0	12.300000000001003	2.840563324413959	4.442411603499188
316	1	1	0	12.300000000000999	7.101408311033398	2.4133333333333327
317	1	1	0	12.300000000001003	11.362253297652835	1.486168601210059
318	1	1	0	12.300000000001	15.623098284272274	1.359291688209385
319	1	1	0	14.760000000001002	2.8405633244139596	3.899501934543392
320	1	1	0	14.760000000001002	7.101408311033397	2.797588396500812
321	1	1	0	14.760000000001	11.362253297652835	1.9424673750229924
322	1	1	0	17.220000000001	2.840563324413959	3.62
323	1	1	0	17.220000000000997	7.101408311033397	2.8841992916436734
324	1	1	0	19.680000000001	2.840563324413959	3.467374978457282
325	1	1	0	-9.839999999999	18.46366160868523	14.48
326	1	1	0	-7.379999999999	14.202816622065797	7.624255063167478
327	1	1	0	-7.379999999999	18.46366160868523	14.327374978457284
328	1	1	0	-4.919999999999	9.941971635446356	8.446666666666667
329	1	1	0	-4.919999999998999	14.202816622065795	7.519501934543392
330	1	1	0	-4.919999999998999	18.46366160868523	14.09574493683252
331	1	1	0	-2.459999999999	5.6811266488269165	9.269078270165855
332	1	1	0	-2.4599999999990008	9.941971635446356	8.830921729834145
333	1	1	0	-2.4599999999989977	14.202816622065795	14.48
334	1	1	0	-2.4599999999989985	18.46366160868523	13.744199291643675
335	1	1	0	1.0002483203848033e-12	1.4202816622074799	9.653333333333334
336	1	1	0	1.0009747146381926e-12	5.6811266488269165	9.653333333333334
337	1	1	0	1.0011382258180973e-12	9.941971635446356	9.653333333333334
338	1	1	0	1.0002431393440216e-12	14.202816622065797	13.273333333333332
339	1	1	0	1.002487763583586e-12	18.46366160868523	13.273333333333333
340	1	1	0	2.460000000001001	1.4202816622074803	9.653333333333334
341	1	1	0	2.460000000001001	5.681126648826918	10.037588396500814
342	1	1	0	2.460000000001	9.941971635446356	10.475744936832522
343	1	1	0	2.4600000000010005	14.202816622065795	12.066666666666666
344	1	1	0	2.4600000000009996	18.46366160868523	12.80246737502299
345	1	1	0	4.920000000001001	1.4202816622074794	9.473373569200279
346	1	1	0	4.920000000001001	5.681126648826918	10.124199291643675
347	1	1	0	4.920000000001001	9.941971635446356	10.86
348	1	1	0	4.920000000001	14.202816622065797	11.787164732123273
349	1	1	0	4.920000000001003	18.46366160868523	12.450921729834144
350	1	1	0	7.380000000001001	1.4202816622074799	9.182467375022993
351	1	1	0	7.380000000001	5.6811266488269165	10.037588396500812
352	1	1	0	7.380000000001003	9.941971635446357	11.139501934543393
353	1	1	0	7.380000000001001	14.202816622065797	11.682411603499187
354	1	1	0	7.3800000000010035	18.46366160868523	12.219291688209383
355	1	1	0	9.840000000001	1.4202816622074796	8.726168601210057
356	1	1	0	9.840000000001002	5.681126648826918	9.653333333333332
357	1	1	0	9.840000000001	9.941971635446356	11.682411603499187
358	1	1	0	9.840000000001002	14.202816622065797	11.886706902533613
359	1	1	0	9.840000000001002	18.463661608685232	12.066666666666666
360	1	1	0	12.300000000001003	1.4202816622074808	8.167164732123275
361	1	1	0	12.300000000001003	5.681126648826918	14.48
362	1	1	0	12.300000000001003	9.941971635446356	12.450921729834146
363	1	1	0	12.300000000001003	14.202816622065797	12.246626430799722
364	1	1	0	14.760000000001002	1.42028166220748	7.710865958310342
365	1	1	0	14.760000000001002	5.6811266488269165	14.09574493683252
366	1	1	0	14.760000000001003	9.941971635446356	12.993831398789942
367	1	1	0	17.220000000001	1.4202816622074796	7.419959764133055
368	1	1	0	17.220000000000997	5.6811266488269165	14.009134041689657
369	1	1	0	19.680000000001	1.4202816622074799	7.24
370	1	1	0	-8.609999999998996	16.333239115375513	7.392625021542716
371	1	1	0	-6.1499999999989985	12.072394128756073	7.975800708356325
372	1	1	0	-6.149999999998999	16.333239115375513	14.48
373	1	1	0	-3.689999999999001	7.811549142136638	8.917532624977008
374	1	1	0	-3.6899999999989994	12.072394128756073	8.062411603499188
375	1	1	0	-3.689999999998998	16.333239115375513	14.200498065456609
376	1	1	0	-1.2299999999989994	3.5507041555171988	9.500708311790612
377	1	1	0	-1.2299999999989997	7.811549142136638	9.373831398789942
378	1	1	0	-1.2299999999989988	12.072394128756077	8.446666666666667
379	1	1	0	-1.2299999999989972	16.333239115375513	13.657588396500811
380	1	1	0	1.2300000000010005	3.5507041555171988	9.80595835487605
381	1	1	0	1.2300000000010007	7.811549142136638	9.932835267876728
382	1	1	0	1.2300000000010014	12.072394128756073	10.86
383	1	1	0	1.230000000001	16.333239115375513	12.889078270165854
384	1	1	0	3.690000000001	3.5507041555171988	9.83329309746639
385	1	1	0	3.690000000001001	7.811549142136638	10.389134041689658
386	1	1	0	3.6900000000010023	12.072394128756073	11.24425506316748
387	1	1	0	3.6900000000010027	16.333239115375513	12.346168601210056
388	1	1	0	6.150000000001002	3.5507041555171988	9.653333333333334
389	1	1	0	6.1500000000010004	7.811549142136637	10.580498065456608
390	1	1	0	6.150000000001004	12.072394128756077	11.33086595831034
391	1	1	0	6.150000000001001	16.333239115375513	12.066666666666666
392	1	1	0	8.610000000001	3.5507041555171988	9.269078270165855
393	1	1	0	8.610000000001	7.811549142136638	10.86
394	1	1	0	8.610000000001001	12.072394128756073	11.595800708356323
395	1	1	0	8.610000000001001	16.333239115375513	11.914041645123948
396	1	1	0	11.070000000001002	3.5507041555171988	8.446666666666667
397	1	1	0	11.070000000001	7.811549142136638	12.066666666666666
398	1	1	0	11.070000000001004	12.072394128756073	12.066666666666666
399	1	1	0	11.070000000001002	16.333239115375513	12.066666666666666
400	1	1	0	13.530000000001003	3.5507041555171988	7.624255063167478
401	1	1	0	13.530000000001001	7.811549142136637	13.273333333333333
402	1	1	0	13.530000000001001	12.072394128756073	12.537532624977008
403	1	1	0	15.990000000001004	3.5507041555171988	14.48
404	1	1	0	15.990000000001002	7.811549142136638	13.552835267876723
405	1	1	0	18.450000000001	3.5507041555171988	14.300040235866945
406	1	1	0	-8.609999999999	17.75352077758199	14.48
407	1	1	0	-6.149999999999001	13.492675790962553	7.71086595831034
408	1	1	0	-6.149999999998999	17.75352077758199	14.300040235866945
409	1	1	0	-3.689999999999	9.231830804343115	8.726168601210057
410	1	1	0	-3.689999999999	13.492675790962556	7.624255063167478
411	1	1	0	-3.689999999999	17.75352077758199	14.009134041689657
412	1	1	0	-1.2299999999990003	4.970985817723678	9.473373569200279
413	1	1	0	-1.229999999998999	9.231830804343115	9.269078270165855
414	1	1	0	-1.2299999999989988	13.492675790962553	14.48
415	1	1	0	-1.229999999998999	17.75352077758199	13.552835267876723
416	1	1	0	1.2300000000010003	0.7101408311042402	9.653333333333334
417	1	1	0	1.230000000001	4.970985817723678	9.83329309746639
418	1	1	0	1.230000000001	9.231830804343115	10.037588396500814
419	1	1	0	1.230000000001002	13.492675790962553	12.066666666666666
420	1	1	0	1.2300000000010018	17.75352077758199	12.993831398789942
421	1	1	0	3.6900000000010014	0.7101408311042405	9.500708311790612
422	1	1	0	3.690000000001002	4.970985817723678	10.037588396500814
423	1	1	0	3.690000000001001	9.231830804343115	10.580498065456608
424	1	1	0	3.690000000001002	13.492675790962556	11.682411603499187
425	1	1	0	3.690000000001001	17.75352077758199	12.537532624977008
426	1	1	0	6.1500000000010004	0.7101408311042399	9.269078270165855
427	1	1	0	6.1500000000010004	4.970985817723678	9.932835267876724
428	1	1	0	6.150000000001001	9.231830804343117	10.86
429	1	1	0	6.1500000000010004	13.492675790962553	11.595800708356323
430	1	1	0	6.150000000000999	17.75352077758199	12.246626430799722
431	1	1	0	8.610000000001	0.7101408311042398	8.917532624977008
432	1	1	0	8.610000000001	4.970985817723678	9.653333333333334
433	1	1	0	8.610000000001	9.231830804343115	11.24425506316748
434	1	1	0	8.610000000001	13.492675790962553	11.682411603499187
435	1	1	0	8.610000000001	17.75352077758199	12.066666666666666
436	1	1	0	11.070000000001	0.7101408311042399	8.446666666666667
437	1	1	0	11.070000000001	4.970985817723678	8.446666666666667
438	1	1	0	11.070000000001002	9.231830804343115	12.066666666666666
439	1	1	0	11.070000000001	13.492675790962553	12.066666666666666
440	1	1	0	11.070000000001004	17.75352077758199	12.066666666666666
441	1	1	0	13.530000000001001	0.7101408311042394	7.975800708356326
442	1	1	0	13.530000000001	4.970985817723678	7.24
443	1	1	0	13.530000000001003	9.231830804343115	12.889078270165854
444	1	1	0	13.530000000001001	13.492675790962553	12.450921729834146
445	1	1	0	15.990000000001002	0.7101408311042396	7.624255063167478
446	1	1	0	15.990000000001	4.970985817723678	14.200498065456609
447	1	1	0	15.990000000001004	9.231830804343115	13.273333333333333
448	1	1	0	18.450000000001	0.7101408311042392	7.3926250215427185
449	1	1	0	18.450000000000998	4.970985817723678	14.09574493683252
450	1	1	0	20.910000000001006	0.7101408311042394	7.24
451	1	1	0	-7.3799999999990025	15.623098284272276	7.419959764133055
452	1	1	0	-4.919999999999001	11.362253297652835	8.167164732123275
453	1	1	0	-4.919999999999002	15.623098284272276	14.48
454	1	1	0	-2.459999999999	7.101408311033397	9.182467375022993
455	1	1	0	-2.459999999998998	11.362253297652835	8.446666666666667
456	1	1	0	-2.459999999999	15.623098284272276	14.09574493683252
457	1	1	0	1.0006444952472664e-12	2.8405633244139596	9.653333333333334
458	1	1	0	1.0008932160443108e-12	7.101408311033398	9.653333333333334
459	1	1	0	1.0000652980632252e-12	11.362253297652835	9.653333333333334
460	1	1	0	1.0003992284774096e-12	15.623098284272274	13.273333333333333
461	1	1	0	2.4600000000010005	2.8405633244139588	9.80595835487605
462	1	1	0	2.460000000001001	7.101408311033398	10.124199291643675
463	1	1	0	2.460000000000999	11.362253297652835	10.86
464	1	1	0	2.460000000001002	15.623098284272276	12.450921729834144
465	1	1	0	4.920000000001	2.840563324413959	9.653333333333332
466	1	1	0	4.920000000001001	7.101408311033398	10.389134041689658
467	1	1	0	4.920000000001002	11.362253297652835	11.139501934543393
468	1	1	0	4.920000000001	15.623098284272274	12.066666666666666
469	1	1	0	7.380000000001001	2.8405633244139588	9.373831398789942